<VTKFile type="PolyData" version="1.0" byte_order="LittleEndian" header_type="UInt64">
  <PolyData>
    <FieldData>
      <DataArray type="Float64" Name="TimeValue" NumberOfTuples="1" format="ascii" RangeMin="1" RangeMax="1">
        1
      </DataArray>
    </FieldData>
    <Piece NumberOfPoints="1600" NumberOfVerts="0" NumberOfLines="0" NumberOfStrips="0" NumberOfPolys="0">
      <PointData>
        <DataArray type="Float32" Name="p" format="ascii" RangeMin="-4.796420097351074" RangeMax="5.425580024719238">
          0.000004192810138192726 -0.0005131720099598169 -0.001558059942908585 -0.002869050018489361 -0.00414624996483326 -0.005246940068900585
          -0.006046889815479517 -0.006465990096330643 -0.006458139978349209 -0.006001430097967386 -0.005092130042612553 -0.003740360029041767
          -0.0019669500179588795 0.00019888200040441006 0.002721240045502782 0.005558759905397892 0.008665519766509533 0.011991599574685097
          0.015483800321817398 0.019085800275206566 0.02273860014975071 0.026381099596619606 0.029951000586152077 0.03338490054011345
          0.03661990165710449 0.039594799280166626 0.04225130006670952 0.04453609883785248 0.04640290141105652 0.0478144995868206
          0.04874600097537041 0.049187399446964264 0.049146801233291626 0.04865489900112152 0.04777019843459129 0.04658740013837814
          0.045245300978422165 0.04389150068163872 0.042840100824832916 0.04234350100159645 0.0005279289907775819 0.00000837833977129776
          -0.000801488000433892 -0.0017576799727976322 -0.002694790018722415 -0.0034859299194067717 -0.004034080076962709 -0.004271150100976229
          -0.004153159912675619 -0.0036556499544531107 -0.0027699999045580626 -0.0015003799926489592 0.00013874200521968305 0.002124520018696785
          0.004427209962159395 0.007011389825493097 0.009836760349571705 0.012858900241553783 0.016029899939894676 0.019298799335956573
          0.02261210046708584 0.02591470070183277 0.02915010042488575 0.03226169943809509 0.03519349917769432 0.037891801446676254
          0.04030609875917435 0.0423910990357399 0.044108498841524124 0.04542919993400574 0.04633520171046257 0.046822600066661835
          0.046903498470783234 0.04660959914326668 0.04599450156092644 0.04513759911060333 0.04414699971675873 0.04315730184316635
          0.04234069958329201 0.041846901178359985 0.0015804700087755919 0.0008149089990183711 -0.0000063194997892424 -0.0008635830017738044
          -0.0016695299418643117 -0.0023241399321705103 -0.0027511899825185537 -0.002895659999921918 -0.002719900105148554 -0.0022016800940036774
          -0.0013321100268512964 -0.00011350800195941702 0.001442449982278049 0.0033162198960781097 0.005481659900397062 0.007906979881227016
          0.010555599816143513 0.013386700302362442 0.016356199979782104 0.019416600465774536 0.022518400102853775 0.025610100477933884
          0.028639400377869606 0.03155359998345375 0.03430109843611717 0.036832500249147415 0.03910180181264877 0.041068099439144135
          0.04269719868898392 0.04396370053291321 0.0448525995016098 0.045361701399087906 0.045503098517656326 0.04530550166964531
          0.04481559991836548 0.04409879818558693 0.04324150085449219 0.04235190153121948 0.041525598615407944 0.04079100117087364
          0.002934090094640851 0.001783229992724955 0.0008231819956563413 -0.00006023340029059909 -0.0008452319889329374 -0.0014543900033459067
          -0.0018295800546184182 -0.001929469988681376 -0.001724860048852861 -0.0011981700081378222 -0.00034259699168615043 0.0008392389863729477
          0.0023365700617432594 0.0041315797716379166 0.006200340110808611 0.008513620123267174 0.011037499643862247 0.013734100386500359
          0.016561899334192276 0.019476599991321564 0.022431299090385437 0.02537740021944046 0.02826550044119358 0.031045900657773018
          0.03366969898343086 0.03609029948711395 0.03826430067420006 0.040153201669454575 0.041724901646375656 0.04295549914240837
          0.04383080080151558 0.04434790089726448 0.04451670125126839 0.04436120018362999 0.04391949996352196 0.043244000524282455
          0.04240360110998154 0.041485000401735306 0.040522098541259766 0.03942130133509636 0.0043056500144302845 0.0027621700428426266
          0.0016130299773067236 0.0006425810279324651 -0.0001800439931685105 -0.0007945889956317842 -0.001158319995738566 -0.0012428299523890018
          -0.0010276599787175655 -0.0005007479921914637 0.00034154701279476285 0.0014951999764889479 0.0029492999892681837 0.004686819855123758
          0.006685200147330761 0.008917029947042465 0.011350500397384167 0.013949800282716751 0.01667580008506775 0.019486399367451668
          0.02233700081706047 0.025181299075484276 0.027971800416707993 0.030660899356007576 0.03320150077342987 0.035548798739910126
          0.03766069933772087 0.039500001817941666 0.04103520140051842 0.04224260151386261 0.04310720041394234 0.0436244010925293
          0.04380070045590401 0.043654900044202805 0.04321679845452309 0.04252669960260391 0.041639700531959534 0.040626898407936096
          0.039472199976444244 0.03798240050673485 0.005582760088145733 0.003637749934569001 0.0022703199647367 0.0011723500210791826
          0.0002699419856071472 -0.00038855199818499386 -0.0007726799813099205 -0.0008653110126033425 -0.0006542130140587687 -0.00013298500562086701
          0.000698323012329638 0.0018335599452257156 0.003260890021920204 0.004963280167430639 0.006918829865753651 0.00910123996436596
          0.011480100452899933 0.014021200127899647 0.016687100753188133 0.01943719945847988 0.022228699177503586 0.025016600266098976
          0.027754800394177437 0.030396800488233566 0.03289639949798584 0.035209398716688156 0.03729400038719177 0.03911289945244789
          0.04063430055975914 0.041832998394966125 0.04269250109791756 0.04320539906620979 0.04337430000305176 0.04321270063519478
          0.04274290055036545 0.041995398700237274 0.04101470112800598 0.039862699806690216 0.03848389908671379 0.036596499383449554
          0.00665574986487627 0.0043181502260267735 0.0027186099905520678 0.0014675899874418974 0.00045670499093830585 -0.00027306299307383597
          -0.0007006080122664571 -0.000818265019915998 -0.0006211369764059782 -0.00010824100172612816 0.0007165150018408895 0.001844429993070662
          0.0032622399739921093 0.0049522798508405685 0.006892719771713018 0.00905773974955082 0.011417699977755547 0.013939600437879562
          0.016586799174547195 0.019319899380207062 0.02209700085222721 0.024873899295926094 0.027605000883340836 0.030244000256061554
          0.03274499997496605 0.03506309911608696 0.03715590015053749 0.03898480162024498 0.04051639884710312 0.04172360152006149
          0.042586799710989 0.04309549927711487 0.043248001486063004 0.04305249825119972 0.04252539947628975 0.0416891984641552
          0.04058140143752098 0.03925979882478714 0.037638600915670395 0.03535990044474602 0.007448399905115366 0.004731220193207264
          0.002893960103392601 0.0014748299727216363 0.0003374069929122925 -0.0004813190025743097 -0.0009671520092524588 -0.001120220054872334
          -0.0009420069982297719 -0.0004365250060800463 0.00038851398858241737 0.0015216900501400232 0.0029479300137609243 0.004648549947887659
          0.006601289846003056 0.008780360221862793 0.011156500317156315 0.013696899637579918 0.0163659006357193 0.01912429928779602
          0.021930599585175514 0.024740800261497498 0.02750910073518753 0.030188899487257004 0.03273310139775276 0.0350956991314888
          0.03723270073533058 0.039103198796510696 0.040671199560165405 0.04190649837255478 0.04278619959950447 0.04329549893736839
          0.0434287004172802 0.043189000338315964 0.04258760064840317 0.041641201823949814 0.04038339853286743 0.038871701806783676
          0.036997001618146896 0.034334298223257065 0.00790643971413374 0.004818330053240061 0.002739999908953905 0.0011433199979364872
          -0.000132069006212987 -0.0010507500264793634 -0.001603569951839745 -0.001797119970433414 -0.0016384100308641791 -0.0011360199423506856
          -0.0003013119858223945 0.0008514830260537565 0.00230529997497797 0.004040109924972057 0.006032879929989576 0.008257419802248478
          0.010684399865567684 0.013281100429594517 0.01601170003414154 0.018837399780750275 0.021716199815273285 0.02460389956831932
          0.027453899383544922 0.030218299478292465 0.03284849971532822 0.03529629856348038 0.037515200674533844 0.03946109861135483
          0.041094500571489334 0.042381200939416885 0.04329409822821617 0.043813999742269516 0.043930601328611374 0.04364259913563728
          0.042956799268722534 0.04188559949398041 0.04046110063791275 0.03874339908361435 0.036604899913072586 0.03355890139937401
          0.007986839860677719 0.004528969991952181 0.0022052600979804993 0.00042392101022414863 -0.000997059978544712 -0.002022230066359043
          -0.002646199893206358 -0.002881040098145604 -0.002738669980317354 -0.0022318800911307335 -0.0013755799736827612 -0.00018681200162973255
          0.001315189991146326 0.003108859993517399 0.005170059856027365 0.00747194979339838 0.009984689764678478 0.012675399892032146
          0.015507900156080723 0.018442900851368904 0.021438099443912506 0.024447999894618988 0.027424899861216545 0.030319100245833397
          0.03307969868183136 0.03565559908747673 0.037996698170900345 0.04005499929189682 0.041786499321460724 0.04315229877829552
          0.044120099395513535 0.04466570168733597 0.044773899018764496 0.04443899914622307 0.04366379976272583 0.04245780035853386
          0.04085319861769676 0.03891510143876076 0.03649970144033432 0.03306020051240921 0.007651530206203461 0.003816500073298812
          0.0012404200388118625 -0.0007322640158236027 -0.0023044899571686983 -0.0034397400449961424 -0.0041356198489665985 -0.00440909992903471
          -0.0042766397818923 -0.003755060024559498 -0.0028627400752156973 -0.0016196200158447027 -0.000047202800487866625 0.00183119997382164
          0.003990179859101772 0.006401950027793646 0.009036020375788212 0.01185890007764101 0.014833900146186352 0.017921000719070435
          0.021076900884509087 0.024255000054836273 0.027405599132180214 0.030476799234747887 0.03341459855437279 0.0361642986536026
          0.03867160156369209 0.04088350012898445 0.04275060072541237 0.044228099286556244 0.04527780041098595 0.04586980119347572
          0.045983199030160904 0.045607998967170715 0.04474300146102905 0.043395500630140305 0.04159880056977272 0.03942510113120079
          0.03671490028500557 0.032859500497579575 0.006862979847937822 0.002634650096297264 -0.00020432799647096545 -0.0023757799062877893
          -0.004104060120880604 -0.005351049825549126 -0.0061169699765741825 -0.006423530168831348 -0.006291680037975311 -0.0057422099635005
          -0.004797049798071384 -0.0034791301004588604 -0.001812380040064454 0.00017799199849832803 0.002465150086209178 0.0050201998092234135
          0.0078118001110851765 0.010805699974298477 0.013964599929749966 0.017247399315238 0.020609699189662933 0.024003200232982635
          0.02737629972398281 0.030673999339342117 0.03383899852633476 0.03681210055947304 0.03953399881720543 0.041945699602365494
          0.04399140179157257 0.04561939835548401 0.046784501522779465 0.04744970053434372 0.04758809879422188 0.0471842996776104
          0.04623330011963844 0.04474009945988655 0.042739998549222946 0.04031340032815933 0.037284500896930695 0.03297770023345947
          0.005580919794738293 0.0009345359867438674 -0.0021817300003021955 -0.00456070015206933 -0.006449639797210693 -0.007808640133589506
          -0.008640590123832226 -0.008972140029072762 -0.00882888026535511 -0.008235819637775421 -0.00721863005310297 -0.005803389940410852
          -0.00401664013043046 -0.0018856199458241463 0.0005612639943137765 0.003293920075520873 0.006280070170760155 0.009484680369496346
          0.012869499623775482 0.016392700374126434 0.020008299499750137 0.023666400462388992 0.027312999591231346 0.030889900401234627
          0.034335698932409286 0.03758649900555611 0.04057659953832626 0.04324069991707802 0.045514799654483795 0.0473393015563488
          0.04866040125489235 0.04943310096859932 0.049622900784015656 0.04920810088515282 0.048179298639297485 0.04653880000114441
          0.04432389885187149 0.04162459820508957 0.038246698677539825 0.033439699560403824 0.003759539918974042 -0.0013378399889916182
          -0.004749699961394072 -0.007346440106630325 -0.009400660172104836 -0.010870800353586674 -0.011762700043618679 -0.012108700349926949
          -0.011939399875700474 -0.011284399777650833 -0.010173499584197998 -0.008636290207505226 -0.006702030077576637 -0.00440018018707633
          -0.0017608200432732701 0.0011847299756482244 0.004403249826282263 0.0078589404001832 0.011512800119817257 0.015321900136768818
          0.01923930086195469 0.023213200271129608 0.0271867997944355 0.031098999083042145 0.03488370031118393 0.03847150132060051
          0.04179000109434128 0.04476569965481758 0.04732609912753105 0.04940149933099747 0.05092829838395119 0.0518512986600399
          0.05212699994444847 0.051725901663303375 0.05063280090689659 0.04884620010852814 0.04640579968690872 0.04341129958629608
          0.039647601544857025 0.03427780047059059 0.0013451500562950969 -0.004243969917297363 -0.007973420433700085 -0.010799599811434746
          -0.013023599982261658 -0.014602599665522575 -0.015546400099992752 -0.015893500298261642 -0.015680599957704544 -0.014942600391805172
          -0.013713699765503407 -0.012027500197291374 -0.009916240349411964 -0.007411799859255552 -0.004545960109680891 -0.0013512499863281846
          0.0021382500417530537 0.0058861300349235535 0.009852769784629345 0.01399459969252348 0.018263500183820724 0.022606100887060165
          0.02696329914033413 0.03127029910683632 0.03545660153031349 0.039446599781513214 0.04316049814224243 0.046515800058841705
          0.04942940175533295 0.05182040110230446 0.05361289903521538 0.05473959818482399 0.05514559894800186 0.0547913983464241
          0.05365400016307831 0.05172700062394142 0.049051299691200256 0.04573730006814003 0.04154429957270622 0.03553590178489685
          -0.0017259600572288036 -0.00785502977669239 -0.011927500367164612 -0.014995800331234932 -0.017393600195646286 -0.019077500328421593
          -0.020062299445271492 -0.020394200459122658 -0.02011680044233799 -0.01927120052278042 -0.017897099256515503 -0.016032099723815918
          -0.013712200336158276 -0.010971699841320515 -0.007844019681215286 -0.004362930078059435 -0.0005631360108964145 0.0035185799933969975
          0.007842370308935642 0.012364399619400501 0.017035700380802155 0.021801700815558434 0.0266014002263546 0.0313665010035038
          0.03602189943194389 0.040485698729753494 0.044669799506664276 0.04848169907927513 0.051826298236846924 0.05460920184850693
          0.05674010142683983 0.058136601001024246 0.058729398995637894 0.05846630036830902 0.05731379985809326 0.055257901549339294
          0.05233990028500557 0.04868080094456673 0.04400910064578056 0.03727240115404129 -0.0055297501385211945 -0.012254100292921066
          -0.016697900369763374 -0.020021600648760796 -0.022595999762415886 -0.024378199130296707 -0.025389699265360832 -0.02568580023944378
          -0.025318900123238564 -0.024337299168109894 -0.022786900401115417 -0.020710399374365807 -0.018147500231862068 -0.01513530034571886
          -0.01170899998396635 -0.00790327973663807 -0.0037533100694417953 0.0007042359793558717 0.005429769866168499 0.010379699990153313
          0.01550500001758337 0.02075060084462166 0.02605379931628704 0.031343698501586914 0.03654060140252113 0.04155610129237175
          0.046293601393699646 0.05064940080046654 0.054514799267053604 0.05777980014681816 0.0603363998234272 0.06208420172333717
          0.06293550133705139 0.06282159686088562 0.06169470027089119 0.05953019857406616 0.05636730045080185 0.052337899804115295
          0.047133199870586395 0.03956510126590729 -0.010156700387597084 -0.017538800835609436 -0.022384800016880035 -0.025976499542593956
          -0.028728000819683075 -0.030598299577832222 -0.03161710128188133 -0.03185179829597473 -0.03136489912867546 -0.030213600024580956
          -0.02845120057463646 -0.026126300916075706 -0.023282799869775772 -0.0199608001857996 -0.01619729958474636 -0.012027700431644917
          -0.007487120106816292 -0.002611669944599271 0.002560039982199669 0.007985400035977364 0.013616199605166912 0.019398299977183342
          0.025267699733376503 0.031151600182056427 0.03696659952402115 0.04261830076575279 0.04800089821219444 0.05299869924783707
          0.057488199323415756 0.061340998858213425 0.06442829966545105 0.0666273981332779 0.06782770156860352 0.06793879717588425
          0.0668938010931015 0.0646527037024498 0.061250001192092896 0.05682750046253204 0.0510311983525753 0.04251540079712868
          -0.01571420021355152 -0.023823600262403488 -0.029104599729180336 -0.03297580033540726 -0.03590109944343567 -0.03784329816699028
          -0.03884359821677208 -0.038983799517154694 -0.038339100778102875 -0.036977700889110565 -0.03496149927377701 -0.032346099615097046
          -0.029180200770497322 -0.02550709992647171 -0.02136549912393093 -0.01679139956831932 -0.01181930024176836 -0.00648400979116559
          -0.0008223049808293581 0.005125409923493862 0.011313400231301785 0.017687400802969933 0.024185899645090103 0.030734900385141373
          0.03724820166826248 0.04362589865922928 0.04975359886884689 0.055503200739622116 0.060734398663043976 0.06529810279607773
          0.06904129683971405 0.07181370258331299 0.0734763965010643 0.07391060143709183 0.07302380353212357 0.07075480371713638
          0.0671285018324852 0.062295399606227875 0.05584700033068657 0.04625380039215088 -0.022329699248075485 -0.031243599951267242
          -0.0369936004281044 -0.041152700781822205 -0.044242601841688156 -0.04623259976506233 -0.047179099172353745 -0.04718169942498207
          -0.046331800520420074 -0.04471059888601303 -0.04239070042967796 -0.039435699582099915 -0.035899899899959564 -0.03183009847998619
          -0.027266699820756912 -0.022245699539780617 -0.016800599172711372 -0.01096390001475811 -0.004769559949636459 0.0017454699845984578
          0.008538840338587761 0.015560300089418888 0.022749999538064003 0.03003549948334694 0.03732930123806 0.04452750086784363
          0.051507800817489624 0.058129798620939255 0.0642353966832161 0.06965240091085434 0.07419929653406143 0.07769320160150528
          0.0799591988325119 0.08084270358085632 0.08021669834852219 0.07799039781093597 0.07417310029268265 0.06892070174217224
          0.061759401112794876 0.05094660073518753 -0.03015430085361004 -0.039958398789167404 -0.04621180146932602 -0.05066230148077011
          -0.05389859899878502 -0.055900901556015015 -0.05674479901790619 -0.056553199887275696 -0.055437199771404266 -0.053494200110435486
          -0.05080990120768547 -0.047456998378038406 -0.043496400117874146 -0.03897849842905998 -0.03394550085067749 -0.028433000668883324
          -0.022472500801086426 -0.016093499958515167 -0.009325459599494934 -0.00220051989890635 0.005244379863142967 0.012964599765837193
          0.0209049005061388 0.028996199369430542 0.03715270012617111 0.04526840150356293 0.05321500077843666 0.060840100049972534
          0.06796780228614807 0.07440059632062912 0.07992470264434814 0.0843179002404213 0.08736159652471542 0.08885499835014343
          0.08862580358982086 0.08654219657182693 0.08258920162916183 0.07692310214042664 0.06899069994688034 0.05680359899997711
          -0.03936680033802986 -0.050157200545072556 -0.05694799870252609 -0.06168549880385399 -0.065037302672863 -0.06699930131435394
          -0.0676736980676651 -0.0672122985124588 -0.06575129926204681 -0.06340820342302322 -0.06028389930725098 -0.056462500244379044
          -0.05201229825615883 -0.04698760062456131 -0.04143200069665909 -0.03538009896874428 -0.028860799968242645 -0.021898899227380753
          -0.014518500305712223 -0.00674453005194664 0.001393500017002225 0.009858909994363785 0.0186040997505188 0.027566799893975258
          0.036665499210357666 0.04579560086131096 0.054825298488140106 0.06359270215034485 0.07190419733524323 0.07953599840402603
          0.08623789995908737 0.09174229949712753 0.09577730298042297 0.09808360040187836 0.09842939674854279 0.09662730246782303
          0.09262490272521973 0.0865710973739624 0.07781650125980377 0.06408820301294327 -0.050180401653051376 -0.062066301703453064
          -0.06942679733037949 -0.0744348019361496 -0.07785189896821976 -0.07969780266284943 -0.08010970056056976 -0.07927720248699188
          -0.07736779749393463 -0.07452390342950821 -0.07086530327796936 -0.06648889929056168 -0.06147129833698273 -0.055871300399303436
          -0.049733199179172516 -0.0430901013314724 -0.03596679866313934 -0.028382500633597374 -0.020353399217128754 -0.011895899660885334
          -0.003029119921848178 0.0062211197800934315 0.01581829972565174 0.02571059949696064 0.035825200378894806 0.046063099056482315
          0.056293100118637085 0.06634709984064102 0.07601600140333176 0.0850495994091034 0.0931587964296341 0.10002399981021881
          0.10530900210142136 0.10868299752473831 0.10983499884605408 0.10850299894809723 0.10458000004291534 0.09819430112838745
          0.08857770264148712 0.07312910258769989 -0.06285029649734497 -0.07595890015363693 -0.08391749858856201 -0.08916129916906357
          -0.09256570041179657 -0.09418590366840363 -0.09420660138130188 -0.0928661972284317 -0.09037219732999802 -0.08689799904823303
          -0.08258569985628128 -0.07754749804735184 -0.07186879962682724 -0.0656128004193306 -0.05882389843463898 -0.051532600075006485
          -0.04375839978456497 -0.03551270067691803 -0.026802299544215202 -0.017632100731134415 -0.008008340373635292 0.002057430101558566
          0.012543699704110622 0.023413600400090218 0.034608300775289536 0.046039700508117676 0.057583000510931015 0.06906890124082565
          0.08027730137109756 0.09093350172042847 0.1007080003619194 0.10922399908304214 0.11607100069522858 0.12082699686288834
          0.12308400124311447 0.12247700244188309 0.11881899833679199 0.11219800263643265 0.10169800370931625 0.08433649688959122
          -0.0776859000325203 -0.09216950088739395 -0.10074800252914429 -0.10616400092840195 -0.109436996281147 -0.11067400127649307
          -0.11012499779462814 -0.10809200257062912 -0.10483399778604507 -0.10056199878454208 -0.09544529765844345 -0.08961310237646103
          -0.08316019922494888 -0.07615309953689575 -0.06863559782505035 -0.06063359975814819 -0.052159298211336136 -0.043214600533246994
          -0.03379419818520546 -0.023888999596238136 -0.01348899956792593 -0.002587979892268777 0.008812000043690205 0.020694199949502945
          0.033019501715898514 0.04571789875626564 0.05867819860577583 0.07173729687929153 0.08467079699039459 0.09718439728021622
          0.10891000181436539 0.11941000074148178 0.12818899750709534 0.1347160041332245 0.13845700025558472 0.13891400396823883
          0.13578200340270996 0.12908099591732025 0.11770399659872055 0.09822289645671844 -0.0950687974691391 -0.111115001142025
          -0.12032199651002884 -0.12580500543117523 -0.1287669986486435 -0.12939299643039703 -0.12802599370479584 -0.12505100667476654
          -0.12079200148582458 -0.11550799757242203 -0.1093979999423027 -0.10260999947786331 -0.09524740278720856 -0.0873785987496376
          -0.07904449850320816 -0.07026399672031403 -0.06103939935564995 -0.05136030167341232 -0.04120659828186035 -0.030551999807357788
          -0.019367199391126633 -0.0076241400092840195 0.004699179902672768 0.017611799761652946 0.031101100146770477 0.04512299969792366
          0.059588901698589325 0.07435210049152374 0.08919359743595123 0.10380800068378448 0.11779499799013138 0.13065600395202637
          0.14180000126361847 0.1505720019340515 0.15627999603748322 0.15824800729751587 0.15600800514221191 0.14946499466896057
          0.13726000487804413 0.1154320016503334 -0.1154789999127388 -0.13332599401474 -0.14314599335193634 -0.1485220044851303
          -0.15090200304985046 -0.15059299767017365 -0.14806300401687622 -0.14381100237369537 -0.13824400305747986 -0.13167400658130646
          -0.12433599680662155 -0.11639600247144699 -0.10796400159597397 -0.09910789877176285 -0.08986029773950577 -0.0802299976348877
          -0.0702057033777237 -0.05976109951734543 -0.048858098685741425 -0.037449900060892105 -0.025484299287199974 -0.012907199561595917
          0.0003319410025142133 0.01427379995584488 0.02893969975411892 0.04432009905576706 0.06035979837179184 0.07694090157747269
          0.09386330097913742 0.11082399636507034 0.12740199267864227 0.1430409997701645 0.15705500543117523 0.16864599287509918
          0.1769299954175949 0.1809999942779541 0.18015900254249573 0.174126997590065 0.16120600700378418 0.13677899539470673
          -0.13954000174999237 -0.1594959944486618 -0.16987000405788422 -0.17485399544239044 -0.17624500393867493 -0.17453299462795258
          -0.17036600410938263 -0.16438999772071838 -0.15711399912834167 -0.14891600608825684 -0.140065997838974 -0.13074399530887604
          -0.12106200307607651 -0.11107899993658066 -0.10081599652767181 -0.09026560187339783 -0.07939720153808594 -0.06816429644823074
          -0.056506600230932236 -0.04435339942574501 -0.031625598669052124 -0.018239399418234825 -0.004110889974981546 0.010837900452315807
          0.026669200509786606 0.04341749846935272 0.06107329949736595 0.07956209778785706 0.09872010350227356 0.11826600134372711
          0.1377750039100647 0.15665100514888763 0.17411500215530396 0.18921299278736115 0.20083600282669067 0.20778599381446838
          0.20904600620269775 0.2040500044822693 0.1906220018863678 0.16331100463867188 -0.16808800399303436 -0.19055600464344025
          -0.20134000480175018 -0.2054699957370758 -0.20525600016117096 -0.2014710009098053 -0.19501300156116486 -0.18672199547290802
          -0.17723000049591064 -0.16698400676250458 -0.15628500282764435 -0.14531999826431274 -0.13418999314308167 -0.12293899804353714
          -0.11156299710273743 -0.10002999752759933 -0.08828529715538025 -0.07625529915094376 -0.06385330110788345 -0.05098019912838936
          -0.03752649948000908 -0.023375000804662704 -0.008404419757425785 0.007505639921873808 0.024465400725603104 0.04256289824843407
          0.061846598982810974 0.08230230212211609 0.10382399708032608 0.12617699801921844 0.14895999431610107 0.17156299948692322
          0.19313199818134308 0.2125599980354309 0.2284809947013855 0.23933400213718414 0.2436710000038147 0.24049299955368042
          0.22692300379276276 0.1964000016450882 -0.20229500532150269 -0.2277979999780655 -0.23868100345134735 -0.24119800329208374
          -0.23844699561595917 -0.23162999749183655 -0.22199200093746185 -0.2106180042028427 -0.1982789933681488 -0.18548600375652313
          -0.17255699634552002 -0.1596679985523224 -0.1468929946422577 -0.13423900306224823 -0.12166900187730789 -0.10911300033330917
          -0.09648189693689346 -0.08366899937391281 -0.0705552026629448 -0.057009000331163406 -0.04288730025291443 -0.028036100789904594
          -0.01229340024292469 0.004507829900830984 0.022531699389219284 0.04192829877138138 0.06281699985265732 0.08526179939508438
          0.10923899710178375 0.1345919966697693 0.16098299622535706 0.1878259927034378 0.21423299610614777 0.23896099627017975
          0.2603769898414612 0.27648401260375977 0.2852669954299927 0.2850799858570099 0.27199798822402954 0.2378920018672943
          -0.24388599395751953 -0.2730630040168762 -0.283407986164093 -0.28306299448013306 -0.2763560116291046 -0.26514101028442383
          -0.25113001465797424 -0.2356960028409958 -0.21975000202655792 -0.20384499430656433 -0.18828199803829193 -0.17319299280643463
          -0.1585959941148758 -0.14443999528884888 -0.1306309998035431 -0.11704900115728378 -0.10355699807405472 -0.09000980108976364
          -0.07624819874763489 -0.06210450083017349 -0.04739899933338165 -0.03193899989128113 -0.015519100241363049 0.002076710108667612
          0.021070899441838264 0.041682999581098557 0.06411480158567429 0.0885268971323967 0.11500400304794312 0.14350800216197968
          0.17381100356578827 0.2054159939289093 0.23746199905872345 0.2686249911785126 0.2970240116119385 0.32017698884010315
          0.3353390097618103 0.33993101119995117 0.3284299969673157 0.2903749942779541 -0.29555198550224304 -0.3290550112724304
          -0.33757999539375305 -0.33229100704193115 -0.31947800517082214 -0.3019460141658783 -0.28199198842048645 -0.2612980008125305
          -0.2408750057220459 -0.2212579995393753 -0.202674001455307 -0.1851540058851242 -0.16861900687217712 -0.15292499959468842
          -0.13789600133895874 -0.12334299832582474 -0.10907100141048431 -0.09488440304994583 -0.08058039844036102 -0.06595110148191452
          -0.05077829957008362 -0.03483010083436966 -0.017856599763035774 0.0004078499914612621 0.020246099680662155 0.04195220023393631
          0.06582029908895493 0.09212440252304077 0.12108699977397919 0.15282799303531647 0.18729500472545624 0.22416000068187714
          0.26269200444221497 0.30159398913383484 0.33881300687789917 0.3713819980621338 0.39568400382995605 0.40783199667930603
          0.399848997592926 0.3576579988002777 -0.3617419898509979 -0.39983299374580383 -0.40397700667381287 -0.39027899503707886
          -0.36812201142311096 -0.34161999821662903 -0.313726007938385 -0.28637000918388367 -0.26054900884628296 -0.23666000366210938
          -0.2147510051727295 -0.19467699527740479 -0.17619700729846954 -0.15903399884700775 -0.14289799332618713 -0.12751300632953644
          -0.11261399835348129 -0.0979439988732338 -0.08325470238924026 -0.06829570233821869 -0.05281050130724907 -0.03652919828891754
          -0.019158199429512024 -0.0003853710077237338 0.020132699981331825 0.04276660084724426 0.06790900230407715 0.09596189856529236